<?xml version="1.0"?>
<VTKFile type="UnstructuredGrid"  version="0.1"  >
<UnstructuredGrid>
<Piece  NumberOfPoints="1191" NumberOfCells="2250">
<Points>
<DataArray  type="Float64"  NumberOfComponents="3"  format="ascii">-1.998418794454604 0.07951303019385178 0  -1.998418794454604 -0.07951303019385128 0  -1.985784147403947 -0.2380363836038083 0  -1.960594733609272 -0.3950547943559056 0  -1.923009808654841 -0.5495755415020505 0  -1.873266996537456 -0.7006216951276473 0  -1.811680787331046 -0.8472382928170562 0  -1.738640548879165 -0.9884983772334455 0  -1.654608065086114 -1.123508856641542 0  -1.560114616370424 -1.25141615132112 0  -1.455757620738988 -1.371411590172826 0  -1.342196856718074 -1.482736523397236 0  -1.22015029202105 -1.584687118923148 0  -1.090389544325334 -1.676618812260554 0  -0.9537350028570122 -1.757950381644867 0  -0.8110506416259891 -1.828167622708069 0  -0.6632385571041347 -1.886826599444269 0  -0.5112332648809497 -1.933556450916074 0  -0.3559957913551021 -1.968061735956841 0  -0.1985075978161225 -1.990124301044855 0  -0.03976437533014084 -1.999604659540131 0  0.119230250339638 -1.996442873563866 0  0.277471063978137 -1.980658932945004 0  0.4339576162126355 -1.952352628838102 0  0.5877005486758418 -1.911702922811522 0  0.737727849048016 -1.858966815394774 0  0.883090996431823 -1.794477721238425 0  1.022870958206844 -1.718643361159322 0  1.156184000449697 -1.631943184398322 0  1.282187275184441 -1.534925337387816 0  1.40008414913885 -1.4282031981935 0  1.50912924031646 -1.312451498540751 0  1.60863313054153 -1.18840205794342 0  1.697966724182727 -1.05683915690524 0  1.776565225498264 -0.9185945784459559 0  1.843931709456414 -0.7745423493012816 0  1.899640263455565 -0.625593214044455 0  1.94333868008082 -0.4726888770658101 0  1.974750683872667 -0.3167960488144297 0  1.993677678029392 -0.1589003339434298 0  2 0 0  1.993677678029392 0.1589003339434288 0  1.974750683872667 0.31679604881443 0  1.94333868008082 0.4726888770658098 0  1.899640263455565 0.6255932140444543 0  1.843931709456413 0.7745423493012821 0  1.776565225498264 0.9185945784459558 0  1.697966724182728 1.056839156905239 0  1.60863313054153 1.188402057943421 0  1.50912924031646 1.312451498540751 0  1.400084149138851 1.428203198193499 0  1.282187275184441 1.534925337387816 0  1.156184000449697 1.631943184398322 0  1.022870958206844 1.718643361159322 0  0.8830909964318238 1.794477721238424 0  0.737727849048016 1.858966815394774 0  0.5877005486758418 1.911702922811522 0  0.4339576162126359 1.952352628838102 0  0.2774710639781366 1.980658932945004 0  0.1192302503396399 1.996442873563866 0  -0.03976437533014035 1.999604659540131 0  -0.1985075978161233 1.990124301044855 0  -0.3559957913550998 1.968061735956842 0  -0.5112332648809492 1.933556450916074 0  -0.6632385571041355 1.886826599444269 0  -0.8110506416259878 1.828167622708069 0  -0.9537350028570125 1.757950381644867 0  -1.090389544325335 1.676618812260553 0  -1.220150292021049 1.584687118923149 0  -1.342196856718074 1.482736523397236 0  -1.455757620738988 1.371411590172827 0  -1.560114616370424 1.25141615132112 0  -1.654608065086115 1.123508856641541 0  -1.738640548879165 0.9884983772334459 0  -1.811680787331047 0.8472382928170558 0  -1.873266996537456 0.7006216951276485 0  -1.923009808654841 0.5495755415020509 0  -1.960594733609272 0.3950547943559051 0  -1.985784147403947 0.2380363836038097 0  0.4755282581475768 0.1545084971874737 0  0.5 0 0  0.4755282581475768 -0.1545084971874738 0  0.4045084971874737 -0.2938926261462366 0  0.2938926261462365 -0.4045084971874738 0  0.1545084971874736 -0.4755282581475768 0  -9.184850993605148e-17 -0.5 0  -0.1545084971874738 -0.4755282581475768 0  -0.2938926261462366 -0.4045084971874737 0  -0.4045084971874737 -0.2938926261462365 0  -0.4755282581475769 -0.1545084971874734 0  -0.5 6.123233995736766e-17 0  -0.4755282581475768 0.1545084971874738 0  -0.4045084971874737 0.2938926261462366 0  -0.2938926261462365 0.4045084971874737 0  -0.1545084971874737 0.4755282581475768 0  3.061616997868383e-17 0.5 0  0.1545084971874737 0.4755282581475768 0  0.2938926261462366 0.4045084971874737 0  0.4045084971874737 0.2938926261462366 0  -1.230730528585047 -0.1949285659602629 0  -1.110048102946097 0.5655977586140475 0  -0.8807911068101292 -0.8807911068101286 0  -0.5506346397609456 1.118912544217572 0  -0.1948057453132965 -1.229955069539226 0  0.2220559043278686 1.227598019873923 0  0.5652414370672598 -1.109348782535033 0  0.8885092415252027 0.873148727527204 0  1.109232304046107 -0.5651820883128336 0  1.229567660418484 0.1947443857365304 0  -1.052839901035271 1.067206076786634 0  -0.2083758438336579 1.487439701213701 0  -1.485655004303144 0.2353618298151531 0  -1.339701814538866 -0.6827316471852271 0  -0.6685257076856015 -1.358472109175872 0  0.7231102048892383 1.332856461017313 0  0.2350137240296898 -1.48345991917115 0  1.061749822756588 -1.06170584460733 0  1.383520446322314 0.6470077450820916 0  1.482834259077332 -0.2348515811527722 0  -0.666213674256569 0.6662136742565692 0  -0.930656374315912 0.14729310855078 0  -0.8393837705238212 -0.4276873929744781 0  -0.4276092370141719 -0.8392303808150552 0  0.1473254651903933 -0.9301763789960524 0  0.6658859764208231 -0.6658859764208235 0  0.9300979592169868 -0.1473130447175759 0  0.8354253167883932 0.4256704600556315 0  -0.1463747788805275 0.9241739818671559 0  0.4231450159246618 0.8304688536058855 0  -0.5962175907918844 1.504441365239511 0  0.15958386946453 1.61054138332101 0  -1.493453906773888 0.6229558707328652 0  -1.222194403378092 -1.062911534260197 0  -0.351713995996139 -1.58234288102862 0  1.08582882904306 1.203751150302171 0  0.6208238333758258 -1.491212822748503 0  1.378191943064719 -0.8414349011653254 0  1.591526374031401 0.3206884694867683 0  -1.573905828279289 -0.3743391585962476 0  -0.9161356349248024 1.381492461389738 0  1.204050388033352 0.9090046108811399 0  0.4973254579459015 1.585300028261362 0  -1.005287858813167 -1.322953576141645 0  -1.265382384390941 0.8373800070546804 0  -1.513568382949432 -0.07183526596727917 0  1.567853888709911 -0.5618360425061613 0  0.9374914772499976 -1.375221710736315 0  -0.03509690387867654 -1.670875785167339 0  1.132123451791083 0.4802497400112379 0  0.505858704502658 1.121827521598342 0  -0.8462392849126527 0.4311145144537799 0  -0.9383187284658948 -0.1486577893173341 0  -0.5605207131881584 -0.560442038080025 0  -0.148518609564495 -0.9376586414342253 0  0.3597785009477286 -0.7061521430087581 0  0.8456117499437761 -0.4308617045371899 0  0.937600312037372 0.1482395656778436 0  -0.3612377874297525 0.7043965663883843 0  0.6723264781032277 0.671906503120753 0  0.1222976732780928 0.7795453548433355 0  -0.4755364485890351 -1.132504006906208 0  1.719154651939851 -0.06840167642883899 0  -0.07815166220059808 1.21672881265448 0  -1.222556722136862 0.1005738693256629 0  -1.047805900163793 -0.6370844104482672 0  0.2822780618804749 -1.192378639717512 0  0.9291166470315755 -0.7984899079577263 0  1.220921664054229 -0.09980697001603892 0  -0.9296583988056116 0.7990908382792442 0  1.476715282691387 0.0675512405137908 0  -1.46146689421404 -0.9286170071622083 0  -1.325705955129554 1.106359441726653 0  -0.08519531964796591 1.730724086106771 0  -0.3775255549264657 1.698467735275544 0  -1.690825660787499 0.4112687567554923 0  -1.725268629417508 0.1022675366170294 0  -1.607042317779035 -0.6750371100272966 0  -0.6173563970855352 -1.622163765800117 0  0.966720797648016 1.443197454539607 0  -0.8155035081547897 -1.137781799445772 0  1.715616916187113 -0.3488707374394039 0  1.639268223344731 0.5805749113643973 0  1.522731024375333 0.8657437257680402 0  1.27667916970876 -1.202708874971939 0  0.424049069037905 -1.679905915265232 0  1.371070508333676 1.099778029591536 0  -0.8073205240340664 1.147287330522079 0  -0.3335864788969337 1.260530417501256 0  -0.7054976285875802 0.9159223546143342 0  -1.739427552969078 -0.1840547834220041 0  -1.258132024807276 0.3553032163761236 0  -1.32653001122921 -0.4296009269928924 0  -0.01348855578474717 -1.413663919244829 0  0.819397609397168 -1.147034484078525 0  1.337694045184826 -0.4471349252522005 0  -1.514495586327452 0.8738426113386526 0  -1.158662791555216 1.300109689962566 0  -0.8499585974594748 -1.530489648641695 0  0.7483648168500383 1.582636481782693 0  0.8514814274630809 1.119434895352102 0  -1.083094799761785 -0.3935354060383167 0  1.363276879311857 0.4046495528317046 0  1.107377233387187 -0.3186466718751116 0  0.7085696650487912 -0.9087252191922415 0  0.039054941500041 -1.151732450242671 0  0.08060455052814741 1.023960104204543 0  -0.6455654396858883 -0.9541646355407761 0  0.6502764741088537 0.9123309020364477 0  -0.4343032261082709 -1.36311526229276 0  0.4920486178891705 1.353388064991349 0  0.4458048534542214 0.5910028108921401 0  -0.7064216349912498 -0.1118861952912327 0  -0.6371368515546102 0.324637440677828 0  0.949547622205457 0.6390200203153956 0  -0.1118319459218407 -0.7060791179530785 0  0.7060277071506231 0.1118238032506671 0  0.6368277675543514 -0.3244799545136647 0  -1.166013410534056 -0.8372971473643106 0  0.0655628288169591 1.398635705225868 0  0.1929425099971173 -1.753366878002748 0  -0.3860600481213775 0.9435817342335748 0  -0.4927001237304433 0.5173685702796815 0  -0.8172373029959691 -0.6581551524185114 0  -0.6276618261199216 -0.342212203457346 0  -0.3423791156728964 -0.6275204472691606 0  0.3735044260846509 -0.9795950083984918 0  0.1178784977838237 -0.7023303402053562 0  0.4909264601620486 -0.5194891133622372 0  0.4303610368057535 -1.365801534834606 0  1.150599095987466 -0.8519105857146383 0  0.6022127466826617 0.4178380922675626 0  -0.1107315031127799 0.699131195500559 0  0.3040968639446318 1.019664012296777 0  -0.7091858427041666 0.1123127768978824 0  0.7087671862270118 -0.1122502973880001 0  0.3396011993388889 1.747066765584124 0  -0.8096972493287989 1.58222978434679 0  -1.228068736142147 -1.288295618725584 0  -0.2336881119701733 -1.770670791825015 0  1.171283020222983 0.6940910049700146 0  1.760795711637832 0.1607345203128955 0  0.8560015230
[...]
<PointData  Scalars="f_25"> 
<DataArray  type="Float64"  Name="f_25"  format="ascii">0.0000000000000000e+00  0.0000000000000000e+00  0.0000000000000000e+00  0.0000000000000000e+00  0.0000000000000000e+00  0.0000000000000000e+00  0.0000000000000000e+00  0.0000000000000000e+00  0.0000000000000000e+00  0.0000000000000000e+00  0.0000000000000000e+00  0.0000000000000000e+00  0.0000000000000000e+00  0.0000000000000000e+00  0.0000000000000000e+00  0.0000000000000000e+00  0.0000000000000000e+00  0.0000000000000000e+00  0.0000000000000000e+00  0.0000000000000000e+00  0.0000000000000000e+00  0.0000000000000000e+00  0.0000000000000000e+00  0.0000000000000000e+00  0.0000000000000000e+00  0.0000000000000000e+00  0.0000000000000000e+00  0.0000000000000000e+00  0.0000000000000000e+00  0.0000000000000000e+00  0.0000000000000000e+00  0.0000000000000000e+00  0.0000000000000000e+00  0.0000000000000000e+00  0.0000000000000000e+00  0.0000000000000000e+00  0.0000000000000000e+00  0.0000000000000000e+00  0.0000000000000000e+00  0.0000000000000000e+00  0.0000000000000000e+00  0.0000000000000000e+00  0.0000000000000000e+00  0.0000000000000000e+00  0.0000000000000000e+00  0.0000000000000000e+00  0.0000000000000000e+00  0.0000000000000000e+00  0.0000000000000000e+00  0.0000000000000000e+00  0.0000000000000000e+00  0.0000000000000000e+00  0.0000000000000000e+00  0.0000000000000000e+00  0.0000000000000000e+00  0.0000000000000000e+00  0.0000000000000000e+00  0.0000000000000000e+00  0.0000000000000000e+00  0.0000000000000000e+00  0.0000000000000000e+00  0.0000000000000000e+00  0.0000000000000000e+00  0.0000000000000000e+00  0.0000000000000000e+00  0.0000000000000000e+00  0.0000000000000000e+00  0.0000000000000000e+00  0.0000000000000000e+00  0.0000000000000000e+00  0.0000000000000000e+00  0.0000000000000000e+00  0.0000000000000000e+00  0.0000000000000000e+00  0.0000000000000000e+00  0.0000000000000000e+00  0.0000000000000000e+00  0.0000000000000000e+00  0.0000000000000000e+00  1.0000000000000000e+01  1.0000000000000000e+01  1.0000000000000000e+01  1.0000000000000000e+01  1.0000000000000000e+01  1.0000000000000000e+01  1.0000000000000000e+01  1.0000000000000000e+01  1.0000000000000000e+01  1.0000000000000000e+01  1.0000000000000000e+01  1.0000000000000000e+01  1.0000000000000000e+01  1.0000000000000000e+01  1.0000000000000000e+01  1.0000000000000000e+01  1.0000000000000000e+01  1.0000000000000000e+01  1.0000000000000000e+01  1.0000000000000000e+01  3.4036515997634598e+00  3.4082868644926561e+00  3.4066126864882347e+00  3.4002388220266369e+00  3.4084016050035943e+00  3.3970430405294461e+00  3.4077623851253938e+00  3.4064075467249761e+00  3.4133379340732488e+00  3.4126853756589695e+00  2.0738123059693101e+00  2.0580602494877249e+00  2.0494947537995247e+00  2.0529810808147357e+00  2.0023463736387592e+00  1.9881834974211514e+00  2.0586891398552005e+00  2.0624855946615646e+00  1.9374323478145323e+00  2.0616217953989158e+00  5.4130620370502438e+00  5.4137276109326624e+00  5.4149995458163511e+00  5.4142691674922103e+00  5.4196376450752650e+00  5.4159307990359409e+00  5.4175461823721527e+00  5.4539631540792275e+00  5.4698841061727181e+00  5.4907606562085718e+00  1.5223452978743006e+00  1.5226365194348264e+00  1.5219245804241055e+00  1.5132623282940203e+00  1.5113709516249678e+00  1.5093989561525287e+00  1.5370421063191007e+00  1.5383329375793691e+00  1.5013455024542808e+00  1.5258318558423365e+00  1.3504005853477870e+00  2.0258800452827601e+00  1.3337394922562120e+00  1.3336410085519994e+00  1.9862026486552138e+00  1.9966877295525765e+00  1.3172774402251948e+00  1.3211428111577324e+00  1.2915233842816229e+00  3.4979763678602129e+00  3.4929774119783294e+00  5.3563693034458781e+00  5.3536012852811057e+00  6.6538583211769220e+00  5.3634757299879023e+00  6.6603365737781264e+00  5.3647860914579777e+00  5.3707026396431594e+00  6.6724410773533860e+00  5.3529475365874974e+00  6.6928498871361510e+00  3.5088105000582797e+00  1.0824283503640175e+00  3.5613396987349146e+00  3.5214894305912945e+00  3.5195731644613026e+00  3.5244454545111190e+00  3.5272892076477840e+00  3.5258397262469505e+00  3.5219661433928358e+00  2.1722970717866690e+00  1.0371676205414511e+00  1.0566049088392568e+00  1.0310963196778520e+00  1.0014362771834131e+00  9.9939731878112703e-01  1.0500189325786657e+00  9.8894060156380104e-01  1.0183369192969220e+00  1.0125968967907211e+00  2.5669848769200958e+00  9.5657573188112299e-01  1.0057063056881879e+00  9.5192473501025598e-01  9.4261671721724305e-01  1.0325222187613419e+00  9.2755745197344597e-01  2.5507707447157157e+00  3.0804372059605081e+00  3.9450181217598370e+00  9.6212571808789460e-01  3.0614547838202038e+00  2.5966877911283102e+00  2.4974288804622296e+00  2.5152759859956695e+00  2.5128549277628376e+00  9.6527619643017404e-01  9.9436791160326199e-01  9.5658410660010140e-01  9.5666368603588736e-01  2.5319842950127165e+00  3.9679359554997036e+00  2.4546964290386892e+00  3.9696119542783848e+00  3.9693682842202085e+00  3.9718620318490330e+00  4.7932295392021436e+00  3.9709928218257082e+00  4.1716895218611567e+00  2.4124003160862966e+00  2.3648337172979152e+00  7.1471603392491918e+00  7.3989504967799675e+00  7.4016482040083753e+00  4.0183540839050531e+00  7.4056221093444909e+00  7.3988788871140141e+00  7.4069114919793728e+00  2.3874772492603862e+00  2.5658794686867550e+00  9.0194342724978060e-01  4.8465736398122745e+00  7.4099647616858615e+00  4.6385134234860024e+00  7.4024148420116234e+00  7.4076898531954232e+00  4.6499387364563098e+00  7.4353943275552634e+00  7.4095276050621672e+00  2.4038874945175488e+00  2.4067055974248581e+00  7.2183517203623566e+00  7.4818749489826466e+00  4.5447360199295810e+00  7.3661525881647911e+00  7.3738509182024830e+00  8.3684474910640194e-01  8.4918257391947882e-01  8.3871172282539486e-01  8.1351091122703845e-01  2.7664405024721890e+00  8.8502293762943141e-01  7.7650821797922820e-01  2.0316779543612133e+00  4.3441844645815708e+00  8.3389861292549661e-01  2.2677319924997006e+00  2.0071789309598751e+00  7.4748234113568612e-01  5.1928312720939118e+00  5.1941412254642811e+00  1.9520144323294648e+00  1.9458585745769057e+00  5.2380546491431961e+00  6.9198308624427296e-01  6.8968885558599924e-01  7.0892538343664735e-01  1.7943779872173284e+00  7.4774445873036799e-01  1.7953584576032193e+00  2.3431889726384281e+00  2.3480742491599385e+00  7.0678406357600010e-01  7.5228922768553430e-01  7.2505493088851714e-01  7.4108522150852951e-01  2.3228218194544663e+00  2.3546668789715586e+00  4.2140646204728869e+00  4.2698651751159833e+00  7.3448579757168697e-01  4.5824017420535741e+00  1.3361540145450896e+00  6.5621000085234238e-01  4.5855669901035574e+00  4.5966946563820432e+00  4.5990983919785222e+00  4.2780723118985637e+00  7.6646090286206583e+00  1.5710989065714291e+00  1.7469271724266782e+00  3.0181529107281562e+00  3.0165883199098635e+00  3.0279095015137885e+00  6.2715662168164266e-01  3.0332460148285887e+00  1.7786303038634406e+00  6.5315816542687877e-01  6.2156902906746869e-01  2.3001368875286361e+00  6.8757570917792310e-01  6.5837948452726847e-01  2.9162316462545177e+00  3.2085427893664780e+00  1.7106344356467216e+00  6.2204601258243226e+00  6.3535526649183653e+00  1.6633160815004702e+00  6.2275701950982318e+00  6.2254841665766678e+00  6.3631535839978666e+00  6.3685478308223056e+00  6.2353339316276859e+00  6.3071334087311852e+00  6.2271167656904511e+00  5.9223548392108205e-01  6.5921400606373026e-01  2.8419141124764278e+00  6.2416190274435812e-01  6.7817096142573039e+00  6.1269501301622575e-01  1.6417006123532061e+00  1.6116956445002955e+00  2.9127564896519016e+00  2.9062478275748713e+00  6.6001267518322104e-01  1.8045266725435019e+00  5.8352158097570672e-01  3.1236442423235049e+00  5.7370562288635940e-01  5.7175203886168380e-01  2.3141555584671871e+00  5.4621413140637631e-01  1.5704698593250834e+00  1.5051681768786296e+00  6.3617308764229485e-01  1.7267386619555940e+00  2.6221968850751680e+00  1.6821550094132967e+00  1.3188193754032047e+00  1.6230373830863367e+00  1.2246360578746325e+00  2.6277006452716174e+00  1.5246476457222755e+00  1.6619195268326898e+00  1.6417200652256443e+00  2.2692847853874527e+00  1.7325015652534290e+00  4.9984501617821477e+00  2.2435167905939677e+00  2.5405253568779611e+00  1.7903481705747291e+00  5.1609216326083729e-01  4.2276244033636772e+00  1.6243126925484528e+00  3.1961910880275206e+00  8.0950926897855968e+00  6.1916433768089227e+00  8.2705432262735972e+00  5.8003749996688532e+00  1.6144330636820221e+00  1.7753347871004650e+00  8.2741305035152628e+00  6.3440217556287681e+00  4.9392876117102835e-01  8.2971459463935950e+00  2.5833840108252306e+00  1.7881590620778314e+00  3.0128636341108050e+00  4.8990522172589912e-01  6.1743925597685467e-01  5.7391829943419621e+00  6.3454829102664849e+00  1.3880543985340401e+00  3.1580115838717768e+00  2.6706662870599378e+00  4.3796075402088581e+00  1.1549777567629576e+00  5.2181534565973930e-01  4.3539119759655867e+00  3.3399071686746868e+00  2.6817859151246042e+00  4.3131473774381508e+00  4.4730349134274547e+00  3.3920884917292735e+00  2.6743150800723430e+00  5.9492114117782624e-01  8.3871029806977990e+00  1.2790951930663401e+00  3.3215762074321042e+00  1.4429715851337899e+00  3.8934208760832822e+00  4.7312957107793396e-01  2.7163590744962112e+00  6.2158237479657856e+00  5.3143125670251601e-01  2.7145197164558073e+00  6.2731179615902919e+00  4.3147722424923982e+00  4.3557550932096971e+00  3.2229206293594794e+00  4.3152325837601708e+00  4.7769497899121638e-01  4.8155974083282876e-01  4.3146395597303453e+00  5.0145872539565568e+00  4.3039079441107173e+00  4.2966505774649120e+00  5.0588525147349239e+00  4.3098059690453994e+00  5.2848993935336432e+00  4.4588424118421628e+00  3.6774373684495334e+00  5.2250509231833169e+00  4.3035368556878435e+00  5.8595515316962921e+00  4.3603661868893981e+00  4.4660059420769658e+00  4.3647251333422856e+00  3.6874689829316725e+00  4.3323239149120187e+00  1.3240941781279347e+00  5.5856791481120893e-01  2.1650621226134601e+00  6.3121413310792995e+00  5.7325780313691321e-01  1.2642846149482796e+00  1.1356816056965522e+00  5.5152773219586249e-01  8.4386551490708701e+00  4.7418702468937501e-01  1.8403363221502291e+00  1.2143689852668451e+00  7.4025492143543048e-01  5.8014955421292025e-01  1.3031058736639234e+00  4.4837419569519887e-01  2.6500546691189943e+00  1.9681735901270205e+00  5.7696154576691527e-01  4.5573440967307804e-01  4.4706436257477600e-01  3.7242205746978390e+00  4.6382005264292697e-01  4.4904948451046506e-01  1.1678555858088742e+00  3.7335899135288315e+00  4.6062230056175251e+00  4.7320636089527490e-01  2.6094526792946455e+00  6.4915994113534357e+00  2.8918525880280965e+00  2.9047072959355820e+00  2.5754528484693604e+00  1.3203028352938055e+00  2.7357791111141312e+00  1.3929580767244210e+00  4.3659849157302161e-01  2.7300078639843801e+00  3.2572279448121102e+00  1.1220873433119325e+00  5.5177303586052382e+00  1.4262585010783420e+00  2.7288357120702926e+00  4.6046531021854925e-01  5.0178768861389855e-01  1.3964361646214680e+00  2.9175320475819628e+00  3.2698757689077875e+00  1.3504547239449716e+00  4.3067707615512452e-01  4.8546973267560223e-01  4.0817357257483183e-01  1.3792083258600383e+00  5.1558749579483010e-01  1.5322565094223775e+00  1.7352921892134383e+00  4.3980259452513315e-01  1.5093833332901301e+00  3.2657931661919988e+00  2.7231093618005655e+00  5.1790278518806723e+00  4.8832565968366765e-01  1.9127368686886768e+00  4.0042611868087086e-01  1.2559033107539583e+00  1.8796578782730464e+00  2.6190076268952653e+00  9.6203348464710492e-01  1.3154493369634084e+00  3.2093916333723032e+00  2.2328782866953958e+00  3.9274023671924657e-01  3.9407487025101391e+00  1.1338360571925212e+00  4.4195785200707305e-01  4.4332657885832544e-01  1.0833806600316345e+00  4.3964589161945833e-01  1.1616867023662194e+00  3.5078561717093670e+00  3.0212202917314928e+00  9.9274876362002862e-01  3.5802584149014063e+00  2.8331366565415266e+00  2.3793242738646652e+00  2.1837905841637109e+00  1.1916824109869431e+00  3.4938967114405726e+00  1.9031169796196610e+00  4.0968613217292410e-01  1.4682027315054531e+00  2.3794241111043162e+00  7.6813607823490795e+00  6.2900655518970341e+00  1.1346308629777058e+00  2.3869150552529734e+00  2.4082473714327217e+00  3.2559579921644151e+00  4.3946335602941117e-01  1.4592981898656152e+00  4.3534612912074405e-01  2.1053099465952139e+00  2.2967864331921115e+00  2.8878211761501125e+00  3.6985400256199297e-01  4.9208870688726175e-01  3.8647298134373859e-01  4.7454631849703359e+00  1.1332673145068137e+00  6.4500476133242035e+00  1.1470844016835844e+00  5.2218003910560702e+00  2.5470711247888236e+00  1.4403394299033137e+00  2.4953135936405633e+00  2.3972268274157278e+00  1.4464543646172889e+00  1.1305042838046291e+00  4.1397695867912150e+00  4.1853272245444506e+00  2.0202620148804802e+00  3.5702259821996890e-01  4.9723553356521517e+00  5.5930319847482801e+00  5.3277415337116256e+00  4.2169740215919695e+00  5.3495646132490551e+00  2.8462424815704108e+00  1.1112888781126318e+00  3.6234429843279234e+00  4.2358674467897006e-01  5.9141972383342756e-01  3.7018683422288627e+00  4.5997337272664645e+00  4.7890431937220210e+00  3.5635889769977585e+00  4.7897902200572799e+00  3.6280126712585665e+00  3.2231386264325415e+00  4.5917008018841212e+00  4.6752207241090593e-01  9.8860801976622559e-01  4.1990703629319720e-01  3.4952002067240723e-01  2.8181108800047268e+00  2.0036352487849265e+00  7.3526377991762102e+00  7.5176030961408076e+00  7.5189231289841532e+00  5.7985041348048316e-01  1.8865245310877194e+00  1.0859061228718188e+00  4.6573180109583473e-01  3.7667442098726811e+00  3.6289204693578627e+00  7.3698522622010190e+00  2.0268915782987902e+00  3.5907362398542703e-01  8.5422737518318250e+00  8.7562339010818562e+00  8.7701101706549807e+00  7.4889821609794183e+00  8.4006273243144012e+00  6.1391250649046478e+00  5.3504404984901370e+00  5.6218826949643610e+00  8.6111179801951696e+00  4.3067368355032543e-01  3.6680397182804145e+00  7.4005459438892096e+00  4.2364239059326370e-01  8.7490536439835456e+00  7.9519647471570742e+00  8.7540020099552898e+00  8.4222866849156297e+00  7.3717471412149624e+00  3.7010206068623255e+00  2.2463320579727863e+00  8.7529506309814646e+00  7.9561346855484594e+00  8.7574288514104470e+00  8.4259473692701814e+00  6.3667814856208036e+00  3.8957381303230281e+00  2.8736775866439848e+00  6.3024281704645251e+00  6.3025952078862915e+00  8.2706499157390514e+00  8.6269766540170636e+00  6.3078655856001742e+00  6.3088665485604665e+00  2.0995896726613061e+00  2.8345375055325612e+00  1.2123131490905270e+00  3.7976817299837800e+00  8.5788769261000350e+00  3.6626442938681802e+00  2.0364367805175707e+00  2.9877869534312991e+00  3.9983071024959599e-01  1.8226698561255223e+00  5.1981339028923648e+00  1.6242431496383316e+00  7.7668702840985193e-01  5.4386389573853151e+00  2.7234172355351842e+00  3.1801778956125304e-01  8.5172460784298405e+00  6.3344861761321907e+00  5.4241034328359969e+00  9.5207745928426379e-01  7.9697248735656947e+00  7.3429121591580184e+00  6.3561230442528576e+00  9.6189346129888509e-01  6.3516648919966938e+00  1.2326411396330965e+00  6.3666414334082635e+00  7.1799499653959398e+00  2.0714763963136140e+00  1.6585436361286590e+00  8.5025968522045172e+00  8.5280363379285227e+00  1.8322520618198335e+00  1.3145279422099405e+00  2.1620105599216788e+00  2.9906760826315426e+00  3.6341731319905901e+00  1.0680741983116564e+00  1.8218820378951186e+00  1.6076948784987697e+00  4.1400127723044182e+00  1.1538064250872822e+00  2.8981361848801415e+00  1.4773326307903303e+00  1.4611320420360621e+00  1.9523901173634821e+00  1.0607231161019808e+00  1.4933730442010418e+00  4.6227331794104529e+00  8.5320879998362980e+00  4.6474130440457131e+00  6.3851309841183683e+00  6.3282265544732192e+00  6.3295958394996292e+00  2.1483299417200272e+00  5.0778627620570918e+00  7.2532308381397925e+00  3.9573656328001172e-01  8.4065266462074340e-01  2.2458557647415143e+00  9.3298277464758383e-01  2.1863589344991996e+00  2.8158076021909655e+00  7.2642494301667124e+00  2.2398533378272565e+00  1.0036485571901634e+00  4.2898348471173637e+00  1.0358567507002785e+00  0.0000000000000000e+00  1.0679190306084472e+00  4.5671530180922755e+00  1.4965607082281944e+00  1.1877284406276183e+00  2.8160657394373643e+00  4.1942619823565658e-01  3.8327522444739975e-01  1.1379739159969491e+00  2.8195982224382119e+00  4.7007517833615653e+00  2.5563478842448775e+00  9.6038033173991311e-01  3.0423007457796523e+00  5.3459815685977397e+00  2.6308434247561010e+00  1.9082065846296927e+00  5.3448184360814253e+00  1.0411139909086073e+00  2.2961636120619588e+00  2.9687971917689562e+00  0.0000000000000000e+00  9.6733439919189579e-01  1.0079069413666983e+00  3.7221612050840833e+00  6.9033201750987516e-01  1.8127583947401678e+00  2.7972738968066357e+00  3.8690739856611249e+00  3.7484291018269218e+00  3.6190942199546901e+00  6.4742706334778415e+00  4.2797660457460934e-01  3.5271707477161907e-01  9.2237127700640265e-01  5.8981710932963005e-01  5.9258676778438453e+00  2.0720115374347676e+00  1.5443542157129626e+00  2.2222042486277007e+00  1.7050321588933797e+00  2.9849803038459627e-01  3.0481454716274814e+00  2.7161307117169873e+00  4.0101488646596090e-01  4.2749498897369681e-01  3.3565703524213780e-01  2.9907367743206885e+00  4.5877990455409901e+00  3.5183635800770180e-01  4.0136739338536858e+00  3.0120162171816944e+00  4.4257179763196408e-01  2.1005471856282245e+00  2.2436644880391525e+00  1.6397581000421191e+00  4.0456319929945819e+00  8.5665586636872053e+00  1.9775212893091991e+00  8.8512450650385988e-01  3.2800233999110757e+00  5.1522656962789712e+00  2.1160551422121072e+00  3.0008065867582308e+00  3.7210812138868093e-01  1.8994525518248031e+00  1.7074136059209744e+00  0.0000000000000000e+00  0.0000000000000000e+00  4.0478575237507186e-01  7.7956903601581851e-01  6.6022074443031391e+00  0.0000000000000000e+00  1.5903978077128158e+00  1.5894980890894204e+00  1.8112159882760173e+00  1.8470564849738622e+00  3.9050020109696568e+00  5.9533808120680005e+00  4.4799511463865276e+00  3.1118593002240185e+00  1.6766301094154135e+00  5.9127291729290770e+00  1.2669497250878208e+00  0.0000000000000000e+00  5.2017303013260752e-01  2.5015542828290300e+00  7.0951932774797024e+00  8.8001863795953170e+00  2.2821921833275751e+00  4.2261986442262076e+00  2.3054153178957439e+00  3.9720250059847451e+00  7.0965558979745902e+00  1.6509350026897742e+00  2.0718045003598511e+00  1.9453493250385800e+00  4.5533412143054326e+00  3.5417676698651873e-01  3.7201398259598795e-01  3.6315026203339967e-01  1.1009308204480659e+00  1.3643210817279441e+00  3.8919923800126349e-01  3.6121657515231687e-01  1.0902153731353628e+00  7.2173257757794920e+00  6.6607861124443790e-01  1.8681457072230221e+00  2.0660340281550118e+00  2.4581319983782048e+00  2.5843666781034615e+00  4.4973955094908362e+00  1.4265999543939716e+00  5.4594067372374031e+00  4.8762954748812826e+00  9.5784027711196718e-01  5.1178391293069501e+00  8.2167380339085927e-01  5.5076204147026973e+00  4.5589567342180137e+00  1.9153540532771398e+00  3.1445668693093225e+00  8.8539425243990821e-01  3.5831427134244576e-01  5.8538886793550144e+00  3.7721530537713774e+00  8.6960156239230759e+00  8.9041405153359710e-01  1.1540184737700614e+00  1.3656116667797868e+00  3.7619201177218047e+00  3.9574930225249845e+00  4.7461385342999725e+00  2.2735716689718659e+00  3.8967702967207657e-01  2.6008995864845326e+00  1.2412221712511091e+00  9.3551164337131265e-01  9.4296184878142442e-01  8.8045181469416729e+00  1.5631291778566712e+00  1.3481737415746331e+00  1.1007619356612708e+00  8.6899151111163597e+00  9.1332870775250763e-01  1.1213155064764395e+00  3.5735007290036480e-01  3.9490795264304186e+00  1.6225704559089960e+00  1.9960821618725861e+00  3.0502006281453209e+00  4.9092581751506073e+00  3.3567129250203838e+00  1.1203784077360008e+00  4.8668473936525913e+00  4.4479149811284584e+00  3.6301513828801673e+00  4.9273933289441825e+00  2.4617142943710868e+00  2.9050142733462101e