<?xml version="1.0"?>
<VTKFile type="UnstructuredGrid"  version="0.1"  >
<UnstructuredGrid>
<Piece  NumberOfPoints="2201" NumberOfCells="3805">
<Points>
<DataArray  type="Float64"  NumberOfComponents="3"  format="ascii">165 -55 0  170 -57 0  175 -61 0  178 -66 0  180 -71 0  181 -76 0  182 -81 0  182 -86 0  182 -91 0  182 -96 0  185 -101 0  190 -104 0  192 -109 0  191 -114 0  189 -119 0  187 -124 0  183 -127 0  184 -132 0  185 -137 0  186 -142 0  189 -147 0  194 -151 0  199 -153 0  204 -155 0  208 -160 0  210 -165 0  211 -170 0  211 -175 0  212 -180 0  212 -185 0  214 -190 0  215 -195 0  213 -193 0  210 -188 0  208 -183 0  207 -178 0  207 -173 0  207 -168 0  205 -163 0  201 -158 0  196 -155 0  191 -153 0  186 -151 0  184 -154 0  184 -159 0  184 -164 0  184 -169 0  185 -174 0  187 -179 0  190 -184 0  193 -189 0  189 -187 0  186 -182 0  183 -177 0  181 -172 0  180 -167 0  179 -162 0  180 -157 0  181 -152 0  182 -147 0  183 -142 0  182 -137 0  181 -132 0  178 -128 0  173 -129 0  168 -128 0  163 -125 0  159 -121 0  155 -117 0  150 -115 0  145 -114 0  140 -113 0  135 -112 0  130 -111 0  125 -109 0  120 -106 0  116 -102 0  111 -98 0  106 -96 0  101 -97 0  96 -98 0  91 -101 0  88 -105 0  85 -110 0  83 -115 0  82 -120 0  82 -125 0  82 -130 0  81 -135 0  82 -140 0  82 -145 0  84 -150 0  86 -155 0  90 -160 0  93 -164 0  98 -169 0  101 -173 0  105 -177 0  110 -181 0  115 -184 0  120 -187 0  125 -191 0  130 -194 0  135 -197 0  140 -200 0  145 -203 0  150 -206 0  155 -209 0  160 -211 0  165 -213 0  170 -215 0  175 -218 0  180 -220 0  185 -222 0  190 -225 0  195 -228 0  200 -232 0  205 -236 0  210 -239 0  214 -243 0  218 -247 0  222 -252 0  225 -256 0  229 -261 0  232 -266 0  235 -271 0  237 -276 0  239 -281 0  241 -286 0  243 -291 0  244 -296 0  245 -301 0  246 -306 0  247 -311 0  247 -316 0  247 -321 0  248 -326 0  247 -331 0  247 -336 0  246 -341 0  245 -346 0  244 -351 0  242 -356 0  240 -361 0  237 -366 0  234 -371 0  230 -376 0  225 -381 0  220 -386 0  216 -390 0  211 -393 0  206 -396 0  201 -399 0  196 -402 0  191 -404 0  186 -406 0  181 -408 0  176 -409 0  171 -409 0  166 -410 0  161 -410 0  156 -409 0  151 -409 0  146 -407 0  141 -405 0  136 -403 0  131 -400 0  126 -396 0  122 -392 0  118 -388 0  113 -384 0  109 -380 0  104 -377 0  100 -373 0  96 -369 0  91 -365 0  87 -362 0  82 -358 0  78 -354 0  73 -351 0  68 -348 0  63 -347 0  58 -346 0  53 -346 0  49 -350 0  47 -355 0  48 -360 0  50 -365 0  52 -370 0  55 -375 0  58 -379 0  63 -382 0  68 -386 0  73 -389 0  78 -392 0  83 -394 0  88 -395 0  93 -397 0  98 -398 0  103 -399 0  108 -401 0  113 -403 0  118 -407 0  121 -411 0  124 -416 0  126 -421 0  128 -426 0  130 -431 0  130 -436 0  131 -441 0  131 -446 0  130 -451 0  129 -456 0  128 -461 0  126 -466 0  123 -471 0  120 -476 0  116 -480 0  111 -484 0  106 -487 0  101 -489 0  96 -490 0  91 -490 0  86 -491 0  81 -490 0  76 -489 0  71 -487 0  66 -483 0  62 -478 0  59 -473 0  58 -468 0  57 -463 0  57 -458 0  58 -453 0  60 -448 0  64 -443 0  69 -440 0  74 -439 0  79 -438 0  84 -439 0  89 -442 0  92 -446 0  94 -451 0  95 -456 0  94 -461 0  90 -466 0  85 -469 0  80 -468 0  75 -463 0  73 -458 0  75 -457 0  79 -462 0  84 -463 0  88 -459 0  89 -454 0  88 -449 0  83 -445 0  78 -444 0  73 -444 0  68 -447 0  64 -451 0  63 -456 0  63 -461 0  64 -466 0  68 -471 0  71 -475 0  76 -478 0  81 -481 0  86 -482 0  91 -483 0  96 -482 0  101 -479 0  106 -475 0  110 -470 0  112 -465 0  114 -460 0  116 -455 0  117 -450 0  118 -445 0  117 -440 0  116 -435 0  114 -430 0  110 -425 0  105 -421 0  101 -419 0  96 -417 0  91 -415 0  86 -414 0  81 -413 0  76 -411 0  71 -410 0  66 -409 0  61 -406 0  56 -403 0  51 -400 0  46 -397 0  41 -394 0  36 -390 0  32 -386 0  28 -381 0  25 -377 0  22 -372 0  20 -367 0  20 -362 0  19 -357 0  20 -352 0  20 -347 0  21 -342 0  23 -337 0  27 -332 0  31 -327 0  36 -323 0  41 -320 0  46 -318 0  51 -317 0  56 -317 0  61 -317 0  66 -317 0  71 -317 0  76 -317 0  81 -318 0  86 -320 0  91 -322 0  96 -324 0  101 -327 0  106 -330 0  111 -334 0  116 -338 0  119 -342 0  124 -346 0  129 -349 0  134 -352 0  139 -354 0  144 -356 0  149 -357 0  154 -357 0  159 -359 0  164 -358 0  169 -357 0  174 -356 0  179 -355 0  184 -353 0  189 -349 0  193 -346 0  198 -342 0  202 -337 0  204 -332 0  205 -327 0  205 -322 0  205 -317 0  204 -312 0  202 -307 0  199 -302 0  196 -297 0  192 -293 0  188 -288 0  183 -283 0  178 -280 0  173 -277 0  168 -274 0  163 -271 0  158 -268 0  153 -265 0  148 -262 0  143 -260 0  138 -257 0  133 -254 0  128 -251 0  123 -249 0  118 -246 0  113 -243 0  108 -240 0  103 -237 0  98 -234 0  93 -231 0  88 -227 0  83 -224 0  78 -221 0  73 -217 0  68 -214 0  63 -210 0  58 -206 0  53 -203 0  48 -199 0  45 -194 0  42 -189 0  38 -184 0  35 -179 0  32 -174 0  30 -169 0  27 -164 0  26 -159 0  24 -154 0  22 -149 0  21 -144 0  21 -139 0  20 -134 0  20 -129 0  20 -124 0  20 -119 0  21 -114 0  22 -109 0  24 -104 0  26 -99 0  28 -94 0  31 -89 0  34 -84 0  39 -79 0  42 -75 0  46 -72 0  51 -68 0  56 -64 0  61 -61 0  66 -58 0  71 -55 0  76 -53 0  81 -51 0  86 -49 0  91 -48 0  96 -46 0  101 -45 0  106 -44 0  111 -43 0  116 -42 0  121 -42 0  126 -42 0  131 -42 0  136 -43 0  141 -43 0  146 -44 0  151 -46 0  156 -50 0  161 -53 0  0 -500 0  270 -500 0  270 0 0  0 0 0  0 -250 0  135 -500 0  270 -250 0  135 0 0  0 -375 0  0 -125 0  67.5 -500 0  270 -375 0  101.25 -500 0  71.31480000000001 -452.13 0  208.612 -199.388 0  97.6123 -430.775 0  173.776 -47.6848 0  185.612 -198.775 0  33.75 -500 0  0 -312.5 0  25.1252 -74.0506 0  11 -373.5 0  59.6188 -358.252 0  65.8061 -422.969 0  136.194 -29.0307 0  84.375 -500 0  91.8837 -474.419 0  0 -109.375 0  81.4452 -452.911 0  92.8125 -500 0  270 -312.5 0  105.302 -451.34 0  102.735 -464.194 0  83.9173 -426.413 0  85.85760000000001 -379.606 0  113.382 -394.794 0  97.6892 -386.554 0  0 -343.75 0  38.1123 -305.531 0  0 -187.5 0  0 -156.25 0  0 -62.5 0  81.1939 -304.031 0  110.275 -162.918 0  95.4693 -142.5 0  95.9693 -120.194 0  27.9283 -42.6724 0  21.441 -45.2816 0  105.233 -105.167 0  141.969 -461.194 0  139.227 -418.609 0  125.171 -404.747 0  173.5 -422.469 0  141.888 -339.531 0  120.112 -263.469 0  159.767 -349.833 0  176.112 -340.531 0  51.2351 -454.207 0  270 -343.75 0  183.225 -305.775 0  234.275 -245.918 0  270 -296.875 0  118.125 -500 0  168.531 -179.888 0  166.031 -156.806 0  170 -142 0  144.806 -127.969 0  191.833 -93.5 0  202.5 0 0  195.446 -169.311 0  201.5 -188.5 0  120.086 -150.159 0  198.969 -136.806 0  191.5 -161.5 0  96.9361 -439.173 0  172.419 -201.703 0  181.485 -209.038 0  0 -437.5 0  44.0307 -452.806 0  51.0926 -447.337 0  99.7201 -448.869 0  0 -359.375 0  66.8306 -369.252 0  69.8068 -431.034 0  75.08240000000001 -420.544 0  123.5 -29.5442 0  138.5 -36.0487 0  75.9375 -500 0  10.3068 -131.5 0  77.2282 -429.914 0  258.386 -313.5 0  94.4392 -299.422 0  110.631 -446.126 0  86.9397 -387.301 0  92.855 -376.145 0  83.6576 -370.623 0  7.96629 -154.823 0  10.0067 -352.601 0  46.7582 -308.791 0  17.5307 -176.888 0  12.5941 -161.462 0  11.2698 -141.5 0  29.7246 -68.91840000000001 0  86.663 -311.093 0  63.5 -303.531 0  73.5 -308.474 0  101.096 -154.803 0  90.53740000000001 -134.307 0  91.9926 -149.703 0  122.112 -123.469 0  88.9513 -122.5 0  123.233 -16.1696 0  86.51779999999999 -38.5892 0  68.1123 -40.5307 0  96.58540000000001 -108.314 0  112.389 -109.611 0  134.907 -466.663 0  144.469 -443.5 0  136.931 -454.986 0  135.613 -411.218 0  135.88 -425.748 0  155.806 -422.969 0  188.888 -420.469 0  180.147 -416.736 0  144.472 -347.569 0  128.275 -331.918 0  140.112 -274.469 0  169.707 -347.535 0  185.542 -340.222 0  223.202 -393.202 0  191.531 -319.5 0  188.798 -300.202 0  222.775 -230.225 0  270 -281.25 0  171.791 -171.242 0  173.069 -153.014 0  154.41 -129.59 0  141.014 -120.931 0  191.684 -83.5 0  204.462 -101.115 0  189.209 -71.7582 0  199.836 -175.5 0  213.781 -151.275 0  270 -187.5 0  33.9044 -285.713 0  203.469 -121.888 0  191.931 -133.014 0  199.339 -144.902 0  106.232 -436.007 0  161.484 -200.04 0  48.4742 -460.5 0  73.5459 -362.454 0  128.5 -35.0194 0  193.324 -64.4879 0  15.7566 -103.603 0  254.469 -363.888 0  266.985 -335.938 0  257.594 -345.919 0  270 -328.125 0  253.839 -307.032 0  251.907 -284.537 0  0 -328.125 0  12.3958 -342.879 0  16.0414 -154.283 0  0 -140.625 0  38.6397 -66.35299999999999 0  97.45269999999999 -313.118 0  58.5 -309.569 0  130.758 -120.209 0  68.9093 -47.8944 0  138.736 -436.853 0  163.5 -418.526 0  153.5 -415.951 0  197.586 -413.215 0  151.5 -349.997 0  195.75 -312.4 0  193.003 -330.501 0  217.202 -235.798 0  132.437 -143.605 0  200.209 -113.242 0  195.431 -124.472 0  84.1955 -432.705 0  250.431 -356.472 0  253.951 -333.5 0  197.761 -324.5 0  127.808 -487.808 0  54.7246 -225.469 0  119.661 -399.799 0  51.5164 -465.913 0  200.544 -213.093 0  90.3351 -434.108 0  176.349 -54.189 0  185.153 -56.7862 0  177.988 -190.207 0  47.6299 -411.283 0  58.4711 -415.882 0  75.57940000000001 -379.034 0  23.6118 -312.64 0  33.9326 -313.888 0  33.0307 -204.582 0  92.41840000000001 -248.969 0  113.097 -172.004 0  67.5 0 0  101.25 0 0  135.332 -344.113 0  126.668 -258.887 0  115.933 -255.112 0  270 -437.5 0  172.706 -294.49 0  226.02 -244.684 0  232.795 -253.864 0  241.112 -263.933 0  140.582 -182.031 0  180.686 -48.7672 0  193.165 -141.101 0  17.6951 -328.656 0  25.0011 -188.399 0  22.1132 -170.332 0  118.079 -320.026 0  125.651 -338.811 0  146.668 -269.887 0  135.933 -266.112 0  210.804 -223.62 0  152.331 -196.448 0  253.789 -327.517 0  246.112 -368.067 0  0 -93.75 0  155.766 -446.341 0  52.6589 -480.205 0  109.688 -500 0  129.423 -478.254 0  60.2979 -218.503 0  72.41840000000001 -235.969 0  238.503 -378.702 0  196.382 -220.03 0  159.114 -40.982 0  50.6744 -472.065 0  39.9974 -200.402 0  101.042 -245.931 0  91.0416 -239.931 0  122.835 -176.608 0  47.5888 -58.611 0  212.193 -400.656 0  176.747 -287.755 0  164.438 -285.604 0  136.402 -188.997 0  33.3915 -191.787 0  108.306 -320.491 0  118.916 -329.23 0  206.411 -229.111 0  49.8205 -213.966 0  76.5984 -229.003 0  154.685 -279.191 0  33.3583 
[...]
<PointData  Scalars="f_18"> 
<DataArray  type="Float64"  Name="f_18"  format="ascii">1.9999999999999998e+00  2.0000000000000000e+00  2.0000000000000000e+00  2.0000000000000000e+00  2.0000000000000000e+00  2.0000000000000000e+00  2.0000000000000000e+00  1.9999999999999998e+00  1.9999999999999998e+00  2.0000000000000000e+00  2.0000000000000000e+00  2.0000000000000000e+00  2.0000000000000000e+00  1.9999999999999998e+00  2.0000000000000000e+00  2.0000000000000000e+00  2.0000000000000000e+00  2.0000000000000000e+00  2.0000000000000000e+00  2.0000000000000000e+00  2.0000000000000000e+00  2.0000000000000000e+00  2.0000000000000000e+00  2.0000000000000000e+00  2.0000000000000000e+00  2.0000000000000000e+00  2.0000000000000000e+00  2.0000000000000000e+00  2.0000000000000000e+00  2.0000000000000000e+00  2.0000000000000000e+00  2.0000000000000000e+00  2.0000000000000000e+00  2.0000000000000000e+00  2.0000000000000000e+00  2.0000000000000000e+00  2.0000000000000000e+00  2.0000000000000000e+00  2.0000000000000000e+00  2.0000000000000000e+00  1.9999999999999998e+00  1.9999999999999998e+00  2.0000000000000000e+00  2.0000000000000000e+00  2.0000000000000000e+00  2.0000000000000000e+00  2.0000000000000000e+00  1.9999999999999998e+00  2.0000000000000000e+00  2.0000000000000000e+00  2.0000000000000000e+00  2.0000000000000000e+00  2.0000000000000000e+00  2.0000000000000000e+00  2.0000000000000000e+00  1.9999999999999998e+00  2.0000000000000000e+00  2.0000000000000000e+00  2.0000000000000000e+00  2.0000000000000000e+00  2.0000000000000000e+00  2.0000000000000000e+00  2.0000000000000000e+00  2.0000000000000000e+00  2.0000000000000000e+00  2.0000000000000000e+00  2.0000000000000000e+00  2.0000000000000000e+00  2.0000000000000000e+00  2.0000000000000000e+00  2.0000000000000000e+00  1.9999999999999998e+00  2.0000000000000000e+00  2.0000000000000000e+00  2.0000000000000000e+00  2.0000000000000000e+00  2.0000000000000000e+00  2.0000000000000000e+00  2.0000000000000000e+00  2.0000000000000000e+00  1.9999999999999998e+00  2.0000000000000000e+00  2.0000000000000000e+00  2.0000000000000000e+00  1.9999999999999998e+00  2.0000000000000000e+00  2.0000000000000000e+00  2.0000000000000000e+00  2.0000000000000000e+00  2.0000000000000000e+00  2.0000000000000000e+00  2.0000000000000000e+00  2.0000000000000000e+00  2.0000000000000000e+00  2.0000000000000000e+00  2.0000000000000000e+00  2.0000000000000000e+00  2.0000000000000000e+00  2.0000000000000000e+00  2.0000000000000000e+00  2.0000000000000000e+00  2.0000000000000000e+00  2.0000000000000000e+00  2.0000000000000000e+00  2.0000000000000000e+00  2.0000000000000000e+00  2.0000000000000000e+00  1.9999999999999998e+00  2.0000000000000000e+00  2.0000000000000000e+00  2.0000000000000000e+00  2.0000000000000000e+00  2.0000000000000000e+00  2.0000000000000000e+00  2.0000000000000000e+00  2.0000000000000000e+00  2.0000000000000000e+00  2.0000000000000000e+00  2.0000000000000000e+00  2.0000000000000000e+00  2.0000000000000000e+00  2.0000000000000000e+00  2.0000000000000000e+00  2.0000000000000000e+00  1.9999999999999998e+00  2.0000000000000000e+00  2.0000000000000000e+00  2.0000000000000000e+00  2.0000000000000000e+00  2.0000000000000000e+00  2.0000000000000000e+00  2.0000000000000000e+00  2.0000000000000000e+00  2.0000000000000000e+00  2.0000000000000000e+00  2.0000000000000000e+00  2.0000000000000000e+00  2.0000000000000000e+00  2.0000000000000000e+00  2.0000000000000000e+00  1.9999999999999998e+00  1.9999999999999998e+00  2.0000000000000000e+00  2.0000000000000000e+00  1.9999999999999998e+00  2.0000000000000000e+00  2.0000000000000000e+00  2.0000000000000000e+00  2.0000000000000000e+00  2.0000000000000000e+00  2.0000000000000000e+00  2.0000000000000000e+00  2.0000000000000000e+00  2.0000000000000000e+00  2.0000000000000000e+00  2.0000000000000000e+00  2.0000000000000000e+00  2.0000000000000000e+00  2.0000000000000000e+00  2.0000000000000000e+00  2.0000000000000000e+00  2.0000000000000000e+00  2.0000000000000000e+00  2.0000000000000000e+00  2.0000000000000000e+00  2.0000000000000000e+00  2.0000000000000000e+00  1.9999999999999998e+00  2.0000000000000000e+00  2.0000000000000000e+00  2.0000000000000000e+00  2.0000000000000000e+00  2.0000000000000000e+00  2.0000000000000000e+00  2.0000000000000000e+00  1.9999999999999998e+00  2.0000000000000000e+00  1.9999999999999998e+00  2.0000000000000000e+00  2.0000000000000000e+00  2.0000000000000000e+00  2.0000000000000000e+00  1.9999999999999998e+00  2.0000000000000000e+00  2.0000000000000000e+00  2.0000000000000000e+00  2.0000000000000000e+00  1.9999999999999998e+00  2.0000000000000000e+00  1.9999999999999998e+00  2.0000000000000000e+00  2.0000000000000000e+00  2.0000000000000000e+00  2.0000000000000000e+00  2.0000000000000000e+00  2.0000000000000000e+00  2.0000000000000000e+00  2.0000000000000000e+00  1.9999999999999998e+00  2.0000000000000000e+00  2.0000000000000000e+00  2.0000000000000000e+00  2.0000000000000000e+00  2.0000000000000000e+00  2.0000000000000000e+00  2.0000000000000000e+00  2.0000000000000000e+00  2.0000000000000000e+00  2.0000000000000000e+00  2.0000000000000000e+00  2.0000000000000000e+00  2.0000000000000000e+00  2.0000000000000000e+00  2.0000000000000000e+00  2.0000000000000000e+00  2.0000000000000000e+00  2.0000000000000000e+00  2.0000000000000000e+00  1.9999999999999998e+00  2.0000000000000000e+00  2.0000000000000000e+00  2.0000000000000000e+00  2.0000000000000000e+00  2.0000000000000000e+00  2.0000000000000000e+00  2.0000000000000000e+00  2.0000000000000000e+00  2.0000000000000000e+00  2.0000000000000000e+00  2.0000000000000000e+00  2.0000000000000000e+00  2.0000000000000000e+00  2.0000000000000000e+00  2.0000000000000000e+00  2.0000000000000000e+00  2.0000000000000000e+00  2.0000000000000000e+00  2.0000000000000000e+00  2.0000000000000000e+00  2.0000000000000000e+00  2.0000000000000000e+00  1.9999999999999998e+00  2.0000000000000000e+00  1.9999999999999998e+00  2.0000000000000000e+00  2.0000000000000000e+00  2.0000000000000000e+00  2.0000000000000000e+00  2.0000000000000000e+00  2.0000000000000000e+00  2.0000000000000000e+00  2.0000000000000000e+00  2.0000000000000000e+00  2.0000000000000000e+00  2.0000000000000000e+00  2.0000000000000000e+00  2.0000000000000000e+00  2.0000000000000000e+00  2.0000000000000000e+00  2.0000000000000000e+00  2.0000000000000000e+00  2.0000000000000000e+00  2.0000000000000000e+00  2.0000000000000000e+00  2.0000000000000000e+00  2.0000000000000000e+00  2.0000000000000000e+00  1.9999999999999998e+00  1.9999999999999998e+00  2.0000000000000000e+00  2.0000000000000000e+00  2.0000000000000000e+00  2.0000000000000000e+00  2.0000000000000000e+00  2.0000000000000000e+00  2.0000000000000000e+00  2.0000000000000000e+00  1.9999999999999998e+00  2.0000000000000000e+00  2.0000000000000000e+00  2.0000000000000000e+00  2.0000000000000000e+00  2.0000000000000000e+00  2.0000000000000000e+00  2.0000000000000000e+00  1.9999999999999998e+00  2.0000000000000000e+00  2.0000000000000000e+00  2.0000000000000000e+00  2.0000000000000000e+00  2.0000000000000000e+00  2.0000000000000000e+00  2.0000000000000000e+00  2.0000000000000000e+00  1.9999999999999998e+00  2.0000000000000000e+00  2.0000000000000000e+00  2.0000000000000000e+00  2.0000000000000000e+00  2.0000000000000000e+00  2.0000000000000000e+00  2.0000000000000000e+00  2.0000000000000000e+00  2.0000000000000000e+00  2.0000000000000000e+00  2.0000000000000000e+00  2.0000000000000000e+00  2.0000000000000000e+00  2.0000000000000000e+00  2.0000000000000000e+00  2.0000000000000000e+00  2.0000000000000000e+00  2.0000000000000000e+00  2.0000000000000000e+00  2.0000000000000000e+00  2.0000000000000000e+00  2.0000000000000000e+00  2.0000000000000000e+00  1.9999999999999998e+00  1.9999999999999998e+00  2.0000000000000000e+00  2.0000000000000000e+00  1.9999999999999998e+00  2.0000000000000000e+00  2.0000000000000000e+00  2.0000000000000000e+00  2.0000000000000000e+00  2.0000000000000000e+00  2.0000000000000000e+00  1.9999999999999998e+00  2.0000000000000000e+00  2.0000000000000000e+00  2.0000000000000000e+00  1.9999999999999998e+00  2.0000000000000000e+00  1.9999999999999998e+00  2.0000000000000000e+00  2.0000000000000000e+00  1.9999999999999998e+00  2.0000000000000000e+00  1.9999999999999998e+00  2.0000000000000000e+00  2.0000000000000000e+00  2.0000000000000000e+00  2.0000000000000000e+00  1.9999999999999998e+00  2.0000000000000000e+00  2.0000000000000000e+00  1.9999999999999998e+00  2.0000000000000000e+00  2.0000000000000000e+00  2.0000000000000000e+00  2.0000000000000000e+00  2.0000000000000000e+00  1.9999999999999998e+00  2.0000000000000000e+00  2.0000000000000000e+00  2.0000000000000000e+00  2.0000000000000000e+00  2.0000000000000000e+00  2.0000000000000000e+00  2.0000000000000000e+00  2.0000000000000000e+00  2.0000000000000000e+00  2.0000000000000000e+00  2.0000000000000000e+00  2.0000000000000000e+00  2.0000000000000000e+00  2.0000000000000000e+00  2.0000000000000000e+00  2.0000000000000000e+00  2.0000000000000000e+00  2.0000000000000000e+00  2.0000000000000000e+00  2.0000000000000000e+00  2.0000000000000000e+00  1.9999999999999998e+00  2.0000000000000000e+00  2.0000000000000000e+00  2.0000000000000000e+00  2.0000000000000000e+00  2.0000000000000000e+00  2.0000000000000000e+00  2.0000000000000000e+00  2.0000000000000000e+00  2.0000000000000000e+00  2.0000000000000000e+00  2.0000000000000000e+00  2.0000000000000000e+00  2.0000000000000000e+00  2.0000000000000000e+00  2.0000000000000000e+00  2.0000000000000000e+00  1.9999999999999998e+00  2.0000000000000000e+00  2.0000000000000000e+00  2.0000000000000000e+00  2.0000000000000000e+00  2.0000000000000000e+00  2.0000000000000000e+00  2.0000000000000000e+00  2.0000000000000000e+00  1.9999999999999998e+00  2.0000000000000000e+00  2.0000000000000000e+00  2.0000000000000000e+00  2.0000000000000000e+00  1.9999999999999998e+00  1.9999999999999998e+00  2.0000000000000000e+00  2.0000000000000000e+00  2.0000000000000000e+00  2.0000000000000000e+00  2.0000000000000000e+00  2.0000000000000000e+00  2.0000000000000000e+00  2.0000000000000000e+00  2.0000000000000000e+00  2.0000000000000000e+00  2.0000000000000000e+00  1.9999999999999998e+00  1.9999999999999998e+00  2.0000000000000000e+00  2.0000000000000000e+00  2.0000000000000000e+00  2.0000000000000000e+00  2.0000000000000000e+00  2.0000000000000000e+00  2.0000000000000000e+00  2.0000000000000000e+00  2.0000000000000000e+00  2.0000000000000000e+00  2.0000000000000000e+00  0.0000000000000000e+00  0.0000000000000000e+00  0.0000000000000000e+00  0.0000000000000000e+00  0.0000000000000000e+00  0.0000000000000000e+00  0.0000000000000000e+00  0.0000000000000000e+00  0.0000000000000000e+00  0.0000000000000000e+00  0.0000000000000000e+00  0.0000000000000000e+00  0.0000000000000000e+00  1.9999999999004179e+00  1.8795935437919897e+00  1.9971573075569238e+00  1.5559357134986485e+00  1.9740624882871454e+00  0.0000000000000000e+00  0.0000000000000000e+00  1.2348739609819734e+00  9.4441901352138313e-01  1.9999999796932770e+00  1.8865452808941721e+00  1.3043615029049607e+00  0.0000000000000000e+00  1.9999975035692252e+00  0.0000000000000000e+00  1.9999999999880553e+00  0.0000000000000000e+00  0.0000000000000000e+00  1.9997655620874899e+00  1.9999675302481081e+00  1.9838824338439438e+00  1.9999991557219288e+00  1.9999155711334118e+00  1.9999954731672980e+00  0.0000000000000000e+00  1.4615107897898552e+00  0.0000000000000000e+00  0.0000000000000000e+00  0.0000000000000000e+00  1.8827779618761962e+00  1.9998844220977936e+00  1.9999596988994803e+00  1.9999785802668604e+00  6.8406057478754645e-01  5.6898181784441593e-01  1.9999909915389436e+00  1.5044767308284037e+00  1.9446461734513139e+00  1.9976476976925510e+00  1.7135133014366080e+00  1.9950279593578570e+00  1.9557435029399872e+00  1.9984620355305844e+00  1.9980944010753825e+00  1.6897434507288520e+00  0.0000000000000000e+00  1.9972048155309827e+00  1.4681716245731200e+00  0.0000000000000000e+00  0.0000000000000000e+00  1.9971129243941705e+00  1.9994649377457423e+00  1.9998415797038962e+00  1.9998856726959442e+00  1.7988387259812648e+00  0.0000000000000000e+00  1.9991455504571809e+00  1.9777822038443407e+00  1.9998060797605461e+00  1.8079298881923007e+00  1.9998047203730427e+00  1.9983932408612555e+00  1.9903338950402072e+00  1.9789328537606468e+00  0.0000000000000000e+00  1.3929091120964836e+00  1.6595786892918332e+00  1.9996561615576391e+00  0.0000000000000000e+00  1.9999999170476970e+00  1.9285743083531910e+00  1.9603404417191466e+00  1.3582308893445099e+00  1.6383895619823343e+00  0.0000000000000000e+00  1.0046836586856045e+00  1.9683419194462937e+00  9.8618510818517335e-01  1.8972560247958572e+00  1.9997463519090135e+00  1.9999989638264792e+00  1.9999989999980021e+00  1.9999996731530563e+00  6.5700742231639586e-01  9.8216689666171408e-01  1.7167457908210064e+00  1.0707949644292560e+00  9.5602538962817751e-01  1.0550633574788710e+00  1.3036776125489944e+00  1.9433142299690602e+00  1.7892040062482415e+00  1.9003586309549665e+00  1.9999381975595893e+00  1.9999779941782376e+00  1.9999744827700914e+00  1.9999303540980413e+00  1.9999882311403416e+00  7.2535163304342087e-01  1.5483523680481164e+00  1.3847515787879383e+00  1.9999911973719298e+00  1.9999834963984013e+00  1.5928998296154773e+00  1.7173462093053953e+00  1.7541883137625800e+00  1.9808659644896911e+00  1.9402396627578800e+00  1.8203838313325811e+00  1.6161781358196035e+00  1.7848497454434984e+00  1.9977633835111721e+00  1.9912186979159643e+00  1.9805583955071926e+00  1.9985650051967119e+00  1.9989452286515828e+00  1.6949232129633827e+00  1.9984859107319393e+00  1.9986431283146937e+00  1.5997492981622430e+00  0.0000000000000000e+00  1.9987183600367309e+00  1.9997542849595169e+00  1.9998927511596807e+00  1.9999426763111645e+00  1.7286321048337578e+00  1.5440905615431348e+00  1.6897776830882401e+00  1.9977043736076019e+00  1.6563080600811304e+00  0.0000000000000000e+00  1.0523687128014210e+00  1.6600078073031106e+00  1.9031632562610890e+00  1.8719830245812616e+00  1.9991536281480888e+00  1.9964889055694999e+00  1.5428204249882527e+00  1.9999999204994270e+00  1.6285521606572995e+00  1.4678799888408418e+00  1.3042051224838780e+00  9.8651485385528970e-01  2.5162584918086456e-01  9.7403180060370298e-01  0.0000000000000000e+00  1.3395260225274832e+00  1.2284296590245289e+00  0.0000000000000000e+00  1.1388869635953667e+00  1.3369022068618590e+00  0.0000000000000000e+00  1.5606187044146536e+00  1.9581182088461317e+00  1.8524095800773310e+00  1.9999436212765473e+00  1.6727343966957222e+00  1.8669083285377490e+00  1.8469487296050677e+00  1.9177441536249267e+00  1.6787023551890738e+00  1.9983481226510575e+00  1.9990787438227577e+00  1.9990033342947127e+00  1.8005020008847805e+00  1.9997566224741872e+00  1.7251083526724624e+00  1.8401262170365160e+00  1.9893061507875081e+00  1.3801541228830789e+00  1.3758027824042325e+00  1.9993079721326183e+00  8.7516681714712830e-01  1.5936073556515249e+00  1.9995399583679045e+00  1.6386337201307328e+00  1.8849228332417416e+00  1.9950992106656640e+00  1.7127369220387672e+00  1.5412193828266880e+00  1.9913390800754520e+00  1.7131539043972190e+00  1.8416543419150881e+00  1.9999997310967774e+00  1.1500174735108917e+00  1.5715761171003095e+00  1.3332135737939448e+00  1.8700843692861715e+00  1.9998917640965321e+00  0.0000000000000000e+00  0.0000000000000000e+00  1.9971094499704869e+00  1.9797158304933371e+00  1.9628032306252927e+00  0.0000000000000000e+00  1.9953752701334797e+00  1.7202514390413566e+00  1.6682528186438264e+00  1.5090826551570087e+00  1.9992015932120273e+00  1.4385140727886869e+00  1.9206755879937700e+00  1.2536835233800143e+00  1.2792588032152701e+00  1.4770064487516481e+00  1.9788864264194825e+00  1.9961074880304046e+00  1.9911308113703070e+00  1.9833335951064870e+00  1.7884480791146204e+00  1.9984047570028800e+00  1.4160667505200781e+00  1.4188016571677082e+00  0.0000000000000000e+00  1.4927726949027829e+00  1.2693199174984031e+00  0.0000000000000000e+00  1.3755165497419479e+00  1.7993195087980767e+00  1.7618589021820135e+00  1.5444011230819727e+00  1.9371118623685126e+00  1.5918954795811961e+00  1.4662817905776089e+00  1.6649233804529098e+00  1.9381768015736309e+00  1.9126024450117471e+00  1.9997796917614055e+00  1.5835216319188259e+00  1.7535564083765105e+00  1.9977316147463156e+00  1.9940570240380644e+00  1.9995623782286767e+00  1.5923365767512068e+00  1.9797456677097769e+00  1.9903714614901580e+00  1.8993449062019929e+00  1.6665942269434564e+00  1.8811145882087057e+00  1.9911136049822802e+00  1.6113192571976924e+00  1.9993467396422218e+00  1.9999979105102792e+00  1.6001002853798512e+00  1.9999589901659089e+00  1.9999820343620593e+00  1.9999465615601519e+00  1.9999729263517612e+00  1.3648716324628172e+00  1.5630133309866383e+00  1.9713502055421830e+00  1.8540301463977025e+00  1.9995637063464247e+00  1.9996815053819859e+00  1.9999469798317493e+00  1.9983762093036965e+00  1.5073487997973904e+00  1.4845947034123683e+00  1.8949515774811945e+00  1.2368951841483908e+00  1.9257412654509594e+00  1.9460343006094789e+00  1.9984626745250242e+00  1.2405778149838631e+00  0.0000000000000000e+00  1.9935933302101576e+00  1.2084995070639981e+00  1.9972048473551449e+00  1.6469091045733670e+00  1.5089848483497936e+00  0.0000000000000000e+00  1.9975081720814463e+00  1.9677605064620629e+00  1.7420193063898775e+00  1.1834267331302124e+00  1.4859939880793303e+00  1.2221885756215147e+00  1.6554420805388745e+00  1.9956362724593535e+00  1.8815833434458187e+00  1.9860525064507617e+00  1.4622436891367816e+00  1.5730655036407348e+00  9.5877595777694025e-01  1.9998492728361166e+00  1.9999437426704714e+00  1.9997645701593159e+00  8.5714048688648248e-01  1.8870346084583072e+00  1.9974385872694345e+00  1.4188445003735208e+00  5.1127102441086136e-01  0.0000000000000000e+00  2.5197763546318430e-01  1.9873997250956046e+00  1.9993944186570471e+00  1.1728148290296931e+00  1.7138837592014637e+00  1.5968821192563072e+00  1.7545060192874060e+00  6.4319096726966518e-01  6.1022431560959844e-01  1.9999169593787729e+00  1.9999618744710164e+00  1.9997571742015217e+00  1.9998820858430266e+00  1.9995828224676588e+00  1.9904161978408375e+00  1.9815038502238072e+00  1.3962010425121045e+00  5.7404667039733159e-01  1.0765178428973257e+00  5.6680691342276202e-01  9.3455861893700509e-01  1.9999490088666125e+00  1.9999694179150158e+00  1.9894146354589701e+00  1.9837178576603580e+00  1.2546542012527131e+00  1.9830561237892366e+00  1.3127815318503633e+00  1.9999993272987462e+00  7.9130517981535553e-01  1.9999899176041176e+00  1.9390294653739324e+00  1.9523813515838100e+00  1.9996210556155412e+00  1.9996886125309146e+00  1.0903877165974891e+00  1.9317787487065434e+00  1.9999996100497182e+00  1.4166217636787113e+00  1.9396624453226421e+00  1.7887731919195458e+00  1.9999949607085172e+00  1.7561013719422243e+00  1.9933883665722951e+00  1.8565458049207728e+00  1.8045387082963169e+00  1.9990860195485387e+00  1.9950674140621434e+00  1.9990675510406264e+00  1.9978897804701679e+00  1.9954119677174702e+00  1.9957074966185020e+00  1.9988132526805278e+00  1.2238087779768640e+00  1.9931814043000957e+00  0.0000000000000000e+00  1.3035779859636654e+00  1.9996397191608710e+00  1.1927424151384025e+00  1.8407776453371989e+00  1.6418559636276169e+00  1.9999642646551692e+00  1.9999605451848173e+00  1.9998331243486027e+00  1.9998842519158280e+00  1.9999621331239610e+00  1.4568157228420873e+00  1.8502008512711425e+00  1.9973429941001823e+00  1.4970715185623207e+00  1.7352980680013939e+00  1.7097739724867740e+00  1.4117741016495629e+00  1.5275906131301042e+00  1.2121778930740390e+00  1.6125014451067610e+00  1.3509663349595193e+00  1.4634393713005927e+00  9.2943499040279376e-01  1.2505028332702697e+00  1.2941755925385408e+00  1.8389094678867126e+00  1.7260830114383179e+00  1.5291133497702794e+00  1.6631532040517008e+00  1.7102122563800828e+00  1.4688563967011821e+00  1.9999995635067775e+00  1.7284924892766296e+00  1.2362451489087443e+00  1.6502717091931243e